LAMMPS data file via write_data, version 21 Nov 2023, timestep = 21000, units = metal

5000 atoms
1 atom types

-80 80 xlo xhi
-40 40 ylo yhi
-40 40 zlo zhi

Masses

1 16.05

Pair Coeffs # lj/cut

1 0.0127 3.73

Atoms # atomic

2339 1 -49.81046015089005 34.01797146736653 33.3680119855548 0 -2 0
1037 1 -25.932427640396828 35.400802971152515 -34.75310479691684 0 -1 0
648 1 -24.896458424586015 38.98042424064112 -38.29319877418241 0 0 0
1278 1 -26.223051593545573 -32.945033150809635 -37.26392690277081 0 0 0
1955 1 -26.146266448118872 -36.20116662154665 -39.689122710198276 0 0 0
3323 1 -23.35793990669512 39.21424760000199 -33.7658175842588 0 0 0
1620 1 -13.129558836279882 -37.82798211758615 -33.93886132938767 0 1 0
4316 1 -15.941484457036351 -35.76609187030164 -32.39747999892566 0 0 0
3501 1 -16.217529671894155 -34.79426588332632 -37.45560066989213 0 1 0
3117 1 -8.329503515333395 -38.980763042984236 -36.08291330615191 0 0 0
2758 1 -9.859020838377395 -34.84256349285262 -31.507502165432676 0 0 0
4725 1 -10.253808831165202 -35.52747204495754 -35.28380841770168 0 0 0
4856 1 -5.744310174800305 -37.51127288172225 39.54706254737285 0 0 -1
3887 1 -2.0240174746498893 39.12742522553928 -36.21076591398668 0 -1 0
3558 1 -4.922127592609945 -36.61871116760896 -33.02186092013926 0 0 1
152 1 2.626803675528784 -37.334261032248826 -31.78924438446712 0 0 0
4785 1 -2.794068727886591 -33.60270749360098 -34.661043343930636 0 0 0
1909 1 -3.644805499731849 -34.084845114667274 -39.76038261121316 0 0 0
3278 1 -2.9020385010355154 -36.952367493509975 -36.97781675566305 0 1 1
1496 1 2.575022076044638 -33.3315679520723 -36.140744576262165 0 1 1
1175 1 4.764256430964761 -37.571519706101185 -38.39897514335721 0 0 0
1588 1 2.7544585534291777 39.23666706623685 -38.9859605893597 0 0 1
2555 1 5.855343678734455 39.44834645179296 -35.65793467201553 0 -1 1
1151 1 9.368251211232034 -35.5246270169747 -39.68902849876269 0 0 0
4831 1 8.661318360594322 -39.44672282020946 -38.65187080672615 0 1 0
1653 1 13.666707497441852 -35.34720838603056 -34.937228063873846 0 0 1
2843 1 14.871280089675299 -39.08753032460189 -33.74710634923491 0 0 1
1451 1 18.425063554663286 39.313813848273874 -35.19948496922968 0 -1 1
4376 1 12.07838423145516 -37.99730655010449 -37.26340627419712 0 1 1
853 1 15.995216024485453 -37.941550618013956 -37.489029550736355 0 1 1
118 1 18.30317377932226 -37.22980585139985 -33.03965152503002 0 0 1
2815 1 21.946716701701646 -32.46124224420756 -37.188369559103585 0 0 1
3367 1 -26.69478775416871 -32.365455138763316 38.26859375817911 0 0 -1
2796 1 -27.09350413407538 -21.188432724329626 -31.070254586337136 0 0 1
111 1 -21.88312346571558 -33.95855792017515 -36.706129281438756 0 0 1
3428 1 -24.81473270826588 -29.43492783358948 -36.06115553688821 0 0 0
4538 1 -19.592745021540818 -36.652377256240754 -38.90311424319654 0 1 1
4743 1 -20.086785755341474 -29.431010089701577 -38.02495701106856 0 0 0
3431 1 -18.0389812215319 -32.31542228933652 -34.8275317526382 0 0 0
2346 1 -15.487706179389917 -30.653408305454626 -37.609195470267125 0 0 0
2414 1 -12.624328265481914 -33.52888120287491 -38.004225685898746 0 0 1
3605 1 -8.679570888421072 -31.37163072243642 -36.16772464072085 0 0 0
2440 1 -6.885300244082415 -35.502455819300316 -37.506062068059066 0 0 0
2442 1 -9.329092655605331 -29.014012650110764 -39.63769265573707 0 0 0
1849 1 -7.575708251413226 -27.647943113135995 -34.005344331187096 0 0 0
1761 1 -6.665449503113957 -32.957149241932264 -32.816897002735566 0 0 0
4029 1 -1.1711937248432236 -32.34641850134869 -37.978624062103904 0 0 1
3081 1 4.23006702407203 -29.886377337732164 -35.65902996357331 0 0 0
3086 1 1.247279530783292 -26.27911077417498 -36.50799708812713 0 0 1
4991 1 5.776210514456538 -33.51565162341234 -39.17915161765018 0 0 1
1652 1 7.354021742045053 -29.648838440993277 -33.32789787213888 0 0 1
3263 1 9.60003533569654 -31.277484896706653 38.580175203874404 0 0 -1
3454 1 6.83165914412926 -30.075050000566314 -38.701182526262905 0 0 0
1170 1 9.537531085644254 -32.13871454431127 -36.76439909112052 0 0 1
3245 1 9.944699844863308 -32.540247568176085 -32.68584739423412 0 0 0
2909 1 14.649739486490471 -31.653908096572653 -33.95821086429267 0 0 0
2814 1 20.27988528114229 -31.423406707097463 -33.221008187178434 0 0 1
592 1 17.126752619038676 -34.06229604915753 -37.42877552381691 0 0 1
730 1 16.53168121143503 -24.945830297460365 -33.05869001678992 0 0 1
1187 1 -28.403907084751772 -20.774711211075523 -36.21423594667304 0 0 0
1248 1 -24.913017641240103 -23.50140231007093 -33.148602635031494 0 1 0
542 1 -25.240111250109674 -26.96231171487759 39.37946335792727 1 1 -1
3769 1 -21.363949428798115 -25.744058265965695 -33.68590741568704 0 0 1
2171 1 -20.948760976166902 -29.671024589977502 -33.986480843011556 0 0 1
714 1 -17.58771435147003 -25.32405283199863 -36.95888127676865 0 0 0
1054 1 -13.7599126544594 -25.563974773256973 -38.68899825117188 0 0 0
2208 1 -11.997926692743428 -29.476900670701138 -36.58067901808085 0 0 0
331 1 -5.583161999078464 -26.255828632876366 -38.08918124996569 0 0 0
2195 1 -10.027588971594165 -25.134048645053266 -36.39372548390075 0 0 0
1204 1 -10.370350386055247 -21.697503835995253 -32.77919696490814 0 0 0
2253 1 -2.290759353178168 -26.9549609020659 -34.6880679733764 0 0 0
1219 1 -3.9860988509288 -23.95946667004428 -32.731160443105054 0 0 0
2094 1 -2.3867036763238403 -23.446371701704066 -36.70756634668094 0 0 1
1119 1 4.778177945066731 -26.507945969675724 -39.20190924453085 0 0 0
4826 1 4.6654084688178825 -23.234908951045202 -35.99245958109709 0 0 0
4636 1 1.0705927224368683 -23.085108790958333 -34.413779930943235 0 0 0
1621 1 1.641118617933898 -20.823354643583446 -37.41846446226852 0 0 0
3916 1 10.6631745650172 -24.212194399763348 -38.261992505188836 0 1 1
804 1 9.75846348542696 -23.142338489028607 37.74117989654692 0 0 0
4811 1 15.104744369299851 -23.543289375535515 -36.63021725709969 0 0 0
1540 1 12.073423477656391 -19.372503381674832 -37.94626460266562 0 0 0
3322 1 18.195175021788994 -20.98001729342007 -32.39459047614311 0 1 1
234 1 20.156164238062516 -19.094283057612945 -39.78447851995109 0 0 1
1336 1 18.417034794550926 -22.88169819589411 39.74524835999638 0 0 0
1377 1 18.910751695928415 -25.22244426811925 -35.67979602798035 0 1 0
4806 1 21.726934684467764 -23.29102914208076 -34.18011338136761 0 0 1
245 1 21.43055286678043 -20.490938324914506 -30.29948592284659 0 0 0
2415 1 19.526731290330414 -27.72944108987693 39.85045044928361 0 0 0
2149 1 38.51417013652296 -17.75732167678823 -26.786105666791205 0 0 0
4418 1 -23.219926025586194 -20.16640973921873 -36.05692078468597 0 0 1
4679 1 -23.881918151630533 -18.633109715636866 36.93749113158637 0 0 -1
2217 1 -22.883069367098283 -17.213378748525248 -39.404652576131845 0 0 0
1316 1 -26.039107304050038 -17.338460100717302 -36.95689405306944 0 0 1
3609 1 -20.2364121554747 -16.25065060373324 37.37911618232439 0 0 -1
986 1 -18.102582631512085 -15.777370092606638 -38.29273235732404 0 0 0
241 1 -14.008029104702445 -20.950506735708316 -36.33615590781551 0 0 1
3813 1 -19.34668196206221 -20.450031408514715 -35.658432657554194 0 0 0
1173 1 -17.214800823735974 -14.178930905281737 -34.84587554941805 0 0 0
3985 1 -16.460991855922053 -22.674024814504726 -39.70762153019406 0 0 0
4783 1 -7.1545216976055 -23.421767217476017 -34.8829321853157 0 0 1
3427 1 -3.182864490132179 -15.213929820720123 -36.96615342805855 0 0 0
1320 1 -9.82889010531105 -19.052844766310827 -36.24237411771651 0 0 0
266 1 -5.742675940880736 -22.879642440168933 -39.423059011772786 0 0 0
2604 1 -5.19972969308364 -18.991611662671453 -36.82928577427885 0 0 0
487 1 -2.2109908601860035 -20.118416330604884 -34.381722112639146 0 0 0
2331 1 -0.5027835427445458 -15.64943139250061 -39.76388262591652 0 0 0
665 1 -4.283105169763635 -17.235142476966384 39.916951068320564 0 0 -1
3369 1 -1.7986830044367967 -20.195423939124304 -38.91805537419978 0 0 0
3338 1 2.9088406592081912 -16.2088115937673 -37.29834550923989 0 0 0
242 1 1.9587574504348912 -16.292102351152067 -33.32899146368795 0 0 0
579 1 6.072768524965595 -11.387814474628302 -38.000600106586326 0 0 0
2493 1 9.29747934026728 -16.546476015243 -37.42558720284722 0 0 1
471 1 5.130582712082292 -18.955778286323536 -39.14269390684182 0 0 1
927 1 6.670415502419772 -14.656394068967309 39.80289215171256 0 0 -1
2713 1 16.245158791023627 -18.656084799738682 -35.25825319832739 0 0 0
880 1 15.371055026497762 -18.357569823033433 38.959674929074865 0 0 -1
417 1 18.919123302893126 -16.754079358993476 37.24593934268057 0 0 -1
2437 1 16.97803281246865 -15.641631460536908 -38.424693451159584 0 0 1
1613 1 20.230484232555295 -18.549349440052143 -34.67627071049954 0 0 1
3413 1 -23.665373460362844 -14.185193638200023 37.31660400206825 0 0 0
1694 1 -26.646887386510905 -7.655312212083533 37.89845123867828 0 0 -1
3237 1 -22.944153599224173 -13.744818046477286 -37.212613427978226 0 0 0
2330 1 -20.27584834590464 -12.437648932712785 37.53713881079824 0 0 -1
3266 1 -18.618289503242273 -11.847559524633024 -38.14135454453312 0 0 1
3252 1 -13.373243469462095 -11.940671986816735 -33.8909320230274 0 0 1
3846 1 -12.343779845530852 -15.366377675000678 -35.95992475608137 0 0 1
3157 1 -14.791382780322436 -17.478169655643146 -38.14558370892903 0 0 1
2750 1 -9.765137779746874 -13.19755354516451 -34.72892979743445 0 0 1
2830 1 -7.110865694008007 -15.403643717614568 -37.57493292689308 0 0 1
207 1 -11.997155584362394 -10.755299034326235 -37.607719035571094 0 0 1
4959 1 -7.354594249811534 -10.742268908399055 -38.39005240516267 0 0 1
3857 1 -5.42092630241338 -12.135951553716858 -33.43165625364172 0 0 1
1028 1 -3.980381129599697 -13.221696033483456 39.55004619614675 0 0 0
269 1 0.2668940553376098 -11.960887301831216 -38.301747862169485 0 0 0
4574 1 1.481339454405181 -8.789438654000381 -35.32690047278625 0 0 1
4896 1 2.939371627342856 -9.426463828365282 -39.260579860949846 0 0 0
3005 1 8.161977155881583 -13.388704305562287 35.00445538722292 0 0 -1
1818 1 10.174890220537973 -12.798366638742133 -38.007870433081614 0 0 0
2297 1 11.01472525307141 -13.34560872487686 -34.02585662114124 0 0 0
3634 1 5.537966314774637 -8.571021790396411 -35.02386783510201 0 0 1
3146 1 15.122935134857743 -12.033028010520065 -39.04454440922313 0 0 0
3936 1 13.454854821339806 -15.50743466569862 -38.402671239849724 0 0 0
4404 1 13.620734775343946 -8.740238077924248 -39.9807645071855 0 0 0
47 1 14.791268246162087 -14.409189928287356 -34.48195910821581 0 0 0
2038 1 14.090041083267037 -10.324132124344208 -35.51967394705053 0 0 1
4198 1 20.847529756439478 -14.939638183344528 -37.77959043450426 0 0 0
2084 1 21.172827537239463 -9.74002205270946 -37.84534204999892 0 0 1
546 1 17.91546117073836 -11.79102835676214 -36.06355326564597 0 0 0
3223 1 21.100773974425405 -10.365553176657565 -33.98009150242592 0 0 0
1612 1 23.532285487055983 -18.8021018758225 -37.65439498070042 0 0 0
4047 1 -23.322128703956007 -7.205756705460058 -35.10795411448169 0 0 1
1731 1 -31.5981824014847 3.4164184717499944 -38.2762759015697 0 0 0
3202 1 -19.76732878137085 -8.27198728273676 -36.47897245185459 0 0 1
3717 1 -22.104251797030262 -6.223313239922351 -39.20191127796829 0 0 1
146 1 -20.424910556120707 -3.6263279368473977 -32.735468857023776 0 0 0
1779 1 -26.721170371960245 -8.069887713881066 -30.885679751628984 0 0 0
4016 1 -22.74159696916871 -11.628966604676803 -30.341575920221302 0 0 0
680 1 -17.043788967637173 -5.805531318382358 -34.639678570741374 0 0 1
2636 1 -15.862165208959299 -8.559170771468086 -37.66863855220456 0 0 1
4780 1 -15.200687188436676 -3.2660749637763913 -36.75263415590673 0 0 0
4765 1 -4.568774523117076 -5.189382227715456 -36.615364357205124 0 0 0
3775 1 -9.218426397211324 -11.10868544394564 38.220042303593836 0 0 -1
4037 1 -10.266120355852175 -7.567784895554538 -39.7323860413966 0 0 1
3437 1 -4.591641124591919 -8.783288205662886 39.348040525579535 0 0 0
4156 1 -0.639691122074481 -5.4425231576925235 -36.418739678055644 0 0 1
1922 1 -2.0062247566482885 -4.776559862304907 39.64428436219327 0 0 0
427 1 -3.5197883556756735 -11.11808628563603 -36.93222777867937 0 0 1
2670 1 6.251832822519454 -6.860407224579222 39.72078825514987 0 0 0
2167 1 5.603940541769269 -3.1991174563827345 -38.907399092543315 0 0 1
1205 1 3.298100893185543 -5.150206123166229 -33.15102997942476 0 0 0
1548 1 2.1474825972747684 -6.03905672487626 38.797583629337986 0 0 0
4840 1 7.807475827960347 -5.841241830496678 -36.753046640138166 0 0 1
3169 1 9.3257592886178 -9.074509161076273 -38.33697734492014 0 0 1
3533 1 10.207911089789498 -3.000802705715083 -36.31316804319263 0 0 0
4374 1 12.813562447440194 -4.8534292291120025 -33.569971951199825 0 0 0
2163 1 19.97226033551462 -5.825182839287292 -39.52537626699501 0 0 0
805 1 17.43373450501553 -3.7781483484549363 -37.14489946968586 0 0 0
1253 1 16.946854218953987 -8.657531855427385 -33.443162919511025 0 0 0
2454 1 13.652465872774199 -4.779498976602198 -37.75865001747754 0 0 1
741 1 20.478447184876888 -6.638174329385281 -33.877871923390835 0 0 0
902 1 20.38924383564809 -2.329242698708737 -35.1520154255448 0 0 0
4174 1 25.283614559285244 -8.626630722352806 -36.49119773663358 0 0 1
1742 1 -25.63710427309212 -5.060103721609293 -37.68757042228865 0 0 0
1967 1 -21.453181086208314 -2.320191601382843 -37.32607492885902 0 0 0
4870 1 -24.089751534660852 -0.4920576210044907 -34.293567827061814 0 0 1
1870 1 -26.903857854738636 -0.6864827781628661 -37.32176677826124 0 0 1
997 1 -18.449537198719593 -4.933013000969126 -38.36201338672745 0 0 0
2749 1 -18.449759704527803 0.19649243048010334 -36.81502634128211 0 0 0
4241 1 -16.749265162211856 -1.8240911250799103 -33.04254615912257 0 0 0
222 1 -12.226354995945991 0.7936021099001161 38.84681177998673 0 0 -1
4073 1 -8.428154320198997 -5.017805822418391 -36.379102342134395 0 0 1
2882 1 -3.7797424037704968 -1.2093608245418843 -35.20908398871496 0 0 0
2818 1 -11.199076892617034 -2.0433418445664135 -35.82350459852339 0 0 0
3834 1 -0.5749744880498739 1.1359151711874764 -33.49570358725507 0 0 0
2708 1 -0.05679753202921143 -2.5439875721834 -34.076066720273346 0 0 1
4463 1 -7.538906728011513 -0.1002948227212801 -36.89058888019779 0 0 0
3626 1 3.618241370638588 -2.2626246539822255 -35.59690824551259 0 0 0
2114 1 3.526985896340452 -5.954668047803864 -37.00758896490254 0 0 1
3974 1 1.6604037439845427 -1.8479379090222467 39.41768847149021 0 0 0
836 1 5.418256774311713 0.7801643872987782 37.51424135337954 0 0 -1
2805 1 7.671736966080118 -0.34370422858113514 -37.687267404495614 0 0 0
124 1 3.1973792999476354 1.670643199165989 -34.59058402501534 0 0 1
1938 1 11.431855628257969 0.01678717199564326 -38.57111732103061 0 0 0
2933 1 10.268206695401625 1.4444230900827528 -34.185588379193 0 0 1
3076 1 13.503652745805512 2.910637434018383 39.641700704321835 0 0 0
3838 1 15.160462945801918 -0.5468059982239925 -38.95578704789807 0 0 0
446 1 18.91476511457166 5.906252171788363 -36.5485522363983 0 0 0
2350 1 14.020822564866679 3.6199463715507285 -36.41632637177867 0 0 0
4757 1 21.241938671474117 1.243832768405434 -33.31385527271716 0 0 1
350 1 19.503278125354772 -1.2704970413231025 -39.0956643138954 0 0 1
4478 1 21.186126118743058 1.6841207546794363 -37.13275942196526 0 0 0
4323 1 24.857038698707512 0.7617595659517407 -38.73365092929308 0 0 1
1830 1 40.51773815503314 5.627969170341283 -37.6239505553302 0 0 0
615 1 -22.7536944798539 6.422016635824963 -35.72775605083545 0 0 0
3073 1 -26.09029563109826 2.5117111178095373 -34.998530096700655 0 0 1
3036 1 -20.90093537597073 1.7543593554645445 -39.56138949795217 0 0 1
733 1 -25.965389597741336 8.484459444841864 -38.018973440324906 0 0 0
4195 1 -21.93234785361688 2.5799108992907724 -35.900905279654545 0 0 0
2076 1 -19.740311912202923 5.798969957349291 -37.984902785902015 0 0 1
1841 1 -18.803346802367297 5.219451353339097 -33.881084270888 0 0 1
4314 1 -14.354752127091727 0.7514097994796117 -37.63482983895609 0 0 1
3199 1 -9.781398355111856 2.230189984435353 -34.19999862978363 0 0 0
2998 1 -10.15444718055669 2.9004528590657395 -38.13756784217515 0 0 0
253 1 -7.1823848110381245 5.223778291849676 -35.397664725264576 0 0 0
4693 1 -4.199442824695281 4.496452309924674 -32.44665972600978 0 0 0
3401 1 -3.48999290155251 9.676627725456271 39.64103322106311 0 0 -1
4102 1 -4.132769606230723 2.841564266604149 -36.08244669121743 0 0 1
1107 1 4.213451295999105 0.8530984562200655 -38.79775169330865 0 0 0
1570 1 -0.04756092145893201 7.385104529975984 -38.017681293773634 0 0 0
1678 1 -4.229870908566841 -0.9105208590373163 -39.14984665656723 0 0 0
2170 1 4.024403372758788 4.313865832149215 39.069244596219086 0 0 -1
1020 1 6.516235442977427 2.9459720643074374 -35.53783644500056 0 0 0
4449 1 10.198325281077352 3.7858222090373745 -37.862828821798566 0 0 0
4103 1 6.909372288453694 6.374918591364401 -37.70855429032383 0 0 1
535 1 6.020525913843987 7.8653757706125145 -33.61304317584567 0 0 0
1730 1 11.822915747987949 5.47254242998001 36.9333195628973 0 0 0
2356 1 9.952532683734889 8.900015837071011 -35.46653019792604 0 0 1
176 1 13.90122892443501 7.764199177021335 -37.72616854793802 0 0 1
624 1 17.008794094804202 10.363933251639391 -38.09647715339271 0 0 0
377 1 13.638505808488391 10.742252619079451 -35.44162192544174 0 0 0
3479 1 19.56685572071764 10.030220292838244 -34.956615707146405 0 0 1
1265 1 27.606573484773858 0.9719213188915687 -35.565466072512734 0 0 0
3337 1 21.542465392957862 10.03590145142936 -38.856514101011626 0 0 1
2316 1 22.692692022011403 5.934440438980417 -31.885591681247433 0 0 0
4499 1 21.503097384728548 5.0350968662312985 -39.88898282456645 0 0 1
4665 1 -20.62281074414133 13.876080842575883 -36.901402829327864 0 0 0
4491 1 -22.20622718226716 9.929120126204415 -37.957973029470665 0 0 0
2756 1 -18.278472649523028 8.997963775337258 -36.40361418039321 0 0 0
4101 1 -13.668475023803255 12.222613635312651 -33.43276408491864 0 0 0
29 1 -13.765949463061395 10.480228267564001 -37.116782918369026 0 0 0
3664 1 -4.976535011849744 11.75189012768569 -34.097610871361184 0 0 1
3722 1 -8.737383737391808 9.274781021322829 -36.15313156761383 0 0 1
2287 1 -8.702594481798073 12.830539164560177 -38.002397435427916 0 0 0
1663 1 -13.86287698577293 16.393630913416036 -31.808978027646493 0 0 0
4736 1 -4.4902178083313355 8.150059682705725 -36.241500527662296 0 0 0
2863 1 -0.03290987987738457 11.210399167324764 -39.86631711538388 0 0 0
1935 1 -4.264084858863317 12.330560864170462 -37.99953615317499 0 0 0
1118 1 0.945076139283932 15.979419339273004 -33.62045295107869 0 0 0
3212 1 4.116253090313024 8.79139662525418 39.19500412972992 0 0 -1
1825 1 3.0330683789963255 12.81193887238315 -34.57135223856294 0 0 0
3741 1 6.565776342615936 15.238554863461474 -35.50763962698643 0 0 0
2832 1 10.481672929825875 13.523651910267887 -36.733157262692025 0 0 1
1016 1 9.525920405215402 10.617851041645967 39.71811205195142 0 0 -1
3918 1 7.656931980353678 15.659404580407575 -39.832594064761636 0 0 1
1127 1 13.53171761471252 11.32240016397573 -39.40099114523763 0 0 0
4589 1 14.447718080170002 18.35908349504139 -37.53979368243578 0 0 1
1306 1 20.017141819439047 11.73419510320627 38.1824588351806 0 0 -1
4348 1 24.67926275839216 10.066379241139144 37.06306108741993 0 0 0
3190 1 20.09489824445099 13.427306788562664 -36.94968453246393 0 0 1
3610 1 21.770502353769807 17.248317613096688 -36.272357871587246 -1 1 0
2468 1 27.30198704043633 23.442138216442483 -35.692220164605956 0 0 1
3886 1 22.38129490170241 7.888538391133185 -35.968014574540106 0 0 0
133 1 -22.218622060701907 22.210746451999697 -37.73187288062272 0 0 0
279 1 -21.50646091452358 18.02855727339372 -37.004570859925714 0 0 0
687 1 -24.814523940510192 14.960062645472096 -36.165756496746994 0 0 1
4245 1 -16.980316787832635 20.426840940357778 39.67688153675148 0 0 -1
1875 1 -17.25553836777533 16.893033955017764 -37.2169565464148 0 0 0
4694 1 -12.94887587704284 14.894671739787729 -37.56667024627879 0 0 0
1704 1 -13.348305307845811 19.063945404282038 -39.13921384490285 0 0 0
1279 1 -17.361191341635514 20.461207140451585 -34.69973456812898 0 0 0
4525 1 -12.718549270185726 19.159835407905202 -34.98436112211316 0 -1 0
3155 1 -9.404933954435409 16.76510173057497 -37.15706295675554 0 0 0
36 1 -4.7917003714330555 18.510435224909788 -33.09052236514579 0 0 0
3297 1 -6.439040937014649 15.243942690569153 -34.98715048701951 0 0 1
4761 1 -2.6078082772528823 16.392405052390608 -35.67226341470138 0 0 1
1878 1 0.5429583903337115 14.523929500289194 -37.54335506606386 0 0 0
2327 1 -0.47867202613991183 19.57665021770683 -33.83472315846085 0 0 1
347 1 7.238491919001431 18.4795694797004 -37.42982867910017 0 0 0
4838 1 0.1893585781494872 19.12830988187876 -37.9468835480088 0 0 0
4184 1 10.992012031632433 17.664029557860793 -36.19844389308106 0 0 0
2423 1 12.999152100807732 16.074564989183827 39.05953106552981 0 0 -1
1604 1 16.738585207974012 12.828072497195485 -35.01413016857084 0 0 1
3074 1 11.490687051323142 21.443995322970615 -39.88134179938203 0 0 0
1593 1 16.079525428937096 14.235943169693247 -38.589911236364 0 0 1
3327 1 17.718500572976247 20.544405546234486 -37.46649508992043 0 0 0
1329 1 24.67050191204115 19.922046986927846 -34.0523729273685 0 0 0
1542 1 21.936910969800316 20.405994511649602 -38.62318529603174 0 0 0
1727 1 17.906678382511988 19.02640414890371 -32.30224611703334 0 0 1
4663 1 -19.594662768490288 16.42223709915529 -34.06054746232823 0 0 0
179 1 -22.64365424248576 26.06932472934103 -36.0729800046211 0 0 0
749 1 -17.993922965578058 23.4530442568392 -36.89171339182156 0 0 0
3402 1 -19.77067530848383 27.923415085371985 -38.38544732593663 0 0 0
4708 1 -10.404938657876887 25.071342952415733 38.88745092766036 0 0 -1
823 1 -12.925784955897058 26.297780642796866 -34.700053810535636 0 0 0
1941 1 -12.703001641034183 30.12348124599658 38.62993637239403 0 -1 -1
248 1 -9.234815413729466 21.158720804721835 -38.84378451170805 0 0 1
4689 1 -8.045746313503555 22.36701481795609 -34.39075341963172 0 0 1
4750 1 -6.27369456445023 18.813595293303774 -37.106829647227606 0 0 0
1566 1 -13.38792066177054 23.457731175962472 -37.41916091319166 0 0 0
4571 1 -4.375370606387027 24.106294482172473 -34.7968739294955 0 0 1
3655 1 -1.0768652042525382 23.50206623235349 -32.809385940645676 0 0 0
1976 1 -5.13410540792434 22.08378691177404 -31.154692601365294 0 0 0
2557 1 -1.4789322947398074 22.790037784626776 -37.08370519541641 0 0 0
4100 1 -1.8000495917937962 27.26668109572683 -31.995021167593123 0 0 0
824 1 2.8970119288586846 22.498565448234146 -36.183468795404096 0 0 1
3152 1 5.633829544270699 24.7717713514024 -34.40789632684445 0 0 0
1117 1 4.472475413597734 28.67411872120123 -35.479915208740195 0 0 0
1971 1 6.015683561889972 20.966628782978752 -34.11519308639556 0 0 1
1538 1 8.217972784013348 22.856781759858563 -38.13972499781921 0 0 0
1707 1 9.866860339856512 25.45513169075651 -34.67896141981367 0 0 0
1297 1 4.023211028714752 25.68157518512788 -37.9245300920279 0 0 0
4303 1 7.740512548517527 26.374235791190376 -37.852423536063625 0 0 0
854 1 14.217232896161104 26.28423979404769 -35.19283590278068 0 0 0
2486 1 20.059953392844072 24.630625215677295 -38.52348769529346 0 0 1
228 1 11.786239249545952 25.678863399753816 -38.79553206867145 0 0 0
2795 1 23.00252299843126 22.91832016072751 38.73457240320378 0 -1 0
441 1 23.255914977250455 23.81068092106849 -35.85367096988708 0 -1 1
4090 1 20.678957930322927 29.08437485865588 -39.51395216054308 0 0 1
3352 1 28.48752863038242 29.591343960438667 -38.88011004060156 0 0 1
2757 1 -21.781190116689046 31.71224853985817 -37.958782198165366 0 0 0
3418 1 -19.98116743425213 34.81040294306093 39.934053579530584 0 0 -1
1359 1 -22.795561670521643 32.09274133526071 -34.19037986464343 0 -1 0
4944 1 -16.09131031743936 29.38875805118734 -38.15559070693938 0 0 0
4025 1 -14.81067731257525 31.757044322292753 -35.26838615391123 0 0 1
4745 1 -5.535153902614598 24.69013575312575 37.315634520578364 0 -1 -1
1056 1 -7.178404431030459 32.82803671780477 -37.702403626968064 0 0 0
2859 1 -8.662530006757112 26.08530979174208 -37.61476238297681 0 0 1
2108 1 -4.326319493612528 30.28805900258583 -38.79495741908533 0 -1 0
2721 1 -5.5792530880845925 28.624779902641798 -35.46842942396407 0 0 0
2755 1 -2.864151716344615 26.67396455487708 -38.52488482398141 0 0 0
2425 1 -1.4414767011089311 29.359822702944438 -35.25773749185768 0 0 0
3279 1 1.2826854827920857 26.51709497449487 -35.57278173416352 0 -1 0
4256 1 1.8660951011014566 31.771859157240566 -34.84760541489337 0 0 0
317 1 -0.19045081192804383 32.091749026693236 -38.295373436764514 0 0 0
325 1 2.5894730708740488 29.738667979044905 -31.47208412751831 0 -1 0
4119 1 7.741387942726531 30.36108069182797 -37.66442165860069 0 0 1
777 1 12.408258261592742 34.221872152772484 -37.54494571285133 0 -1 0
2449 1 8.839577201806902 33.802460774046324 -35.331102235468215 0 0 0
3681 1 7.2493068900806135 28.07882541406042 -33.08092406271782 0 0 0
4821 1 12.096297183048131 29.46423826407248 -36.97588255930453 0 0 1
327 1 13.462469726384038 33.277201728171114 38.10152241169744 0 0 -1
4144 1 16.04984286038951 28.142915078217094 -38.77800876954133 0 0 0
4948 1 17.62930563959521 33.99774514128383 -33.557493161805226 0 0 0
3972 1 19.409479372987537 26.180725177752404 -34.2236587768008 0 0 0
4712 1 28.437994089009532 27.86598405603838 -34.936480468799374 0 0 1
1416 1 25.46215366290991 24.37663560798965 -27.947822973964442 0 0 1
757 1 65.31162985087862 29.72493700607386 25.010321858730308 -1 -1 -3
4282 1 -22.547580825575412 36.01794730209225 -37.04925523039605 0 -1 1
3827 1 -25.540124688291396 29.20022988630732 -35.50448562311704 0 0 0
3484 1 -26.61910709460725 35.02950095383826 33.15625127663116 0 -1 -1
1273 1 -12.384431939258098 33.52970840304945 37.72669194755664 0 0 -1
2656 1 -23.794744568747035 36.63118353500864 38.96058623840202 0 -1 -1
3354 1 -21.603050003667875 -38.10367630085112 -35.97477131392721 0 0 0
2797 1 -20.292855089255504 38.77208910047208 -38.16656086961866 0 -1 0
3310 1 -12.687528324672465 36.99971131069813 -39.8259169617095 0 0 0
2059 1 -18.075045983098015 -39.686734450156834 38.41465803779364 1 1 2
4287 1 -15.403401062959654 33.120619114383466 -39.15528690159714 0 0 0
1564 1 -12.975514075427173 35.49539153150095 -35.13610344217013 0 -1 1
220 1 -7.557463105985283 38.153147303205174 -29.865601585703686 0 0 1
1657 1 -11.654834651507617 32.760774380511144 -38.07964899392435 0 0 0
1267 1 -9.782336697829527 30.77122175541344 -34.629308977324456 0 -1 0
4105 1 -12.19996754868093 39.296305753664406 -36.590155546669365 0 0 0
1060 1 -9.933999438405465 36.305176493529196 -37.21354191993275 0 0 1
3258 1 -7.854831518840265 34.938293767317795 -32.96824487839675 0 0 0
1087 1 -1.7575268848978896 33.98671810257241 -34.42162822858704 0 0 1
2430 1 -5.102127455543693 39.19384409675592 -33.332292592431024 0 0 0
2744 1 1.3782802528907512 39.12558248982102 -34.273453739817974 0 -1 0
4652 1 1.0399976292448279 35.87591682338147 -36.478237140607106 0 0 0
3629 1 6.297004383277389 38.621531995454326 -32.084883973540094 0 -1 1
1762 1 6.997343060033725 37.01832140945336 -38.79425602570659 0 0 1
4909 1 10.198481386163115 37.584196708682406 -36.32233948004323 0 -1 1
4941 1 11.256741050115158 37.64407915298815 39.75958258120083 0 -1 -1
4061 1 9.155653258096246 33.69497200978413 -39.89560062092401 0 -1 1
71 1 14.737172515732844 36.76400633024283 -34.03223638209585 0 0 0
2373 1 14.080963868828734 38.70254270169351 -37.51009603758983 0 -1 1
2537 1 17.45196143273867 36.097976731196226 -36.9557999862709 0 0 0
4508 1 15.978310628243722 32.48518420968809 -38.69260037688638 0 0 0
1531 1 19.938991180305248 -37.131643604866774 -37.36716875820421 0 0 1
745 1 22.27112697784347 37.27064941772998 -36.946654503466505 0 0 0
605 1 20.77219380738745 34.55795274566891 39.66931848042806 0 -1 0
2417 1 -78.39833336678517 -32.93328722885471 33.6992338423923 0 1 -1
4920 1 -23.939678473116544 39.54034599784631 -25.864169413994237 0 -1 0
4222 1 -17.071870746202457 -39.06111759079704 -36.32506287570952 0 1 0
310 1 -16.564655622332566 -38.597347485602036 -29.710035971832664 0 0 0
2479 1 -24.611667831562396 -32.36768338710607 -33.43522739711732 0 0 0
3837 1 -12.754174783004357 -36.65519776695286 -29.528958341616427 0 0 0
1867 1 -6.813219207155572 -35.96588592909522 -29.623655807736725 0 0 0
3645 1 -8.141210159399888 -38.48736065050324 -32.24171012256762 0 1 0
2452 1 -9.87885792120786 -38.927160200438884 -28.053330110436207 0 0 0
1579 1 -1.2407439239595746 -37.42359813176889 -33.22708055100468 0 0 0
4243 1 -4.15360313637913 -38.971958003612755 -29.68804807151491 0 1 0
2150 1 -3.8322129798685984 -35.37552617425408 -27.03635305636575 0 0 0
916 1 -0.3941865409780797 -37.147809024197116 -28.69761409523087 0 0 0
2106 1 -2.5219867486564134 -33.82273395703863 -30.48084195468393 0 0 0
1406 1 1.9725151641525156 -37.062226626124634 -35.71814105365326 0 0 0
764 1 5.096965452148259 -37.94199635961206 -28.914706477762397 0 0 0
1994 1 6.1043161637679795 -37.176155933938816 -33.23629607684449 0 1 0
65 1 9.172778352461336 -36.319282805020684 -34.97558183468862 0 0 1
3908 1 8.849084058571345 -39.876604054708345 -29.189164024201357 0 1 0
4481 1 8.063392307643802 -35.86648403127318 -30.353672331274097 0 0 0
3650 1 13.127136516913232 38.93885509552738 -30.26294106301253 0 0 1
4777 1 15.010742831524354 -34.46812134933907 -31.51097629710535 0 0 1
79 1 16.037625148136097 -38.26853634947172 -28.955931080874475 0 0 0
4906 1 11.82913704487924 -37.01846339479633 -31.05721373920045 0 0 0
1503 1 20.478591016521612 -38.207922296385775 -29.465593332177505 0 1 1
1354 1 24.900265359660448 -37.43529585059525 -23.892619510860968 0 1 0
4716 1 19.11040620106964 -37.21048595732694 -25.89587005140781 0 1 0
614 1 -25.493214658404973 -32.996288501902 -27.891770543619995 0 0 1
3183 1 -22.926464467875338 -30.318698453417493 -30.448591703674744 0 1 1
4894 1 -22.351188751897215 -24.883826853995973 -24.16454358436985 0 1 0
1174 1 -23.80384141917315 -29.5693209068513 -26.45069663152284 0 0 0
637 1 -20.35005314678219 -37.53939503116175 -32.664259737963285 0 0 0
1398 1 -13.041052592910416 -32.76070971472695 -33.62362693052749 0 1 0
3748 1 -15.433997954465722 -33.61837760607071 -28.03236603098145 0 1 0